// 9DMM 
BEGIN_RES GLU A 62
ROOT
ATOM    563  CA  GLU A  62     -14.995 -16.061  23.257  0.00  0.00    +0.159   C
ENDROOT
BRANCH  563  566 
ATOM    566  CB  GLU A  62     -15.515 -14.988  24.206  0.00  0.00    +0.043   C
BRANCH  566  567 
ATOM    567  CG  GLU A  62     -14.567 -14.538  25.274  0.00  0.00    +0.123   C 
ATOM    568  CD  GLU A  62     -15.181 -13.420  26.079  0.00  0.00    +0.305   C 
ATOM    569  OE1 GLU A  62     -16.344 -13.075  25.772  0.00  0.00    -0.251   OA
ATOM    570  OE2 GLU A  62     -14.518 -12.890  26.989  0.00  0.00    -0.481   OA
ATOM    571  H01 GLU A  62     -14.272 -13.556  27.636  0.00  0.00    +0.295   HD
ATOM    572  H   GLU A  62     -16.711 -15.829  22.304  0.00  0.00    +0.150.  HD
ENDBRANCH  566  567
ENDBRANCH  563  566 
END_RES GLU A 62
BEGIN_RES HIS A 95
ROOT 
ATOM    902  CA  HIS A  95     -10.203  -6.289  26.222  0.00  0.00    +0.164   C
ENDROOT
BRANCH  902  905
ATOM    905  CB  HIS A  95     -11.659  -6.764  26.183  0.00  0.00    +0.083   C
BRANCH  905  906
ATOM    906  CG  HIS A  95     -11.798  -8.239  26.015  0.00  0.00    +0.021   C 
ATOM    907  CD2 HIS A  95     -12.099  -8.985  24.926  0.00  0.00    +0.087   C 
ATOM    908  ND1 HIS A  95     -11.619  -9.133  27.043  0.00  0.00    -0.325   N 
ATOM    909  CE1 HIS A  95     -11.776 -10.364  26.596  0.00  0.00    +0.194   C 
ATOM    910  NE2 HIS A  95     -12.075 -10.302  25.312  0.00  0.00    -0.328   N 
ATOM    911  H   HIS A  95     -10.923  -4.488  25.840  0.00  0.00    +0.150   HD
ATOM    912  HD1 HIS A  95     -11.432  -8.921  27.856  0.00  0.00    +0.148   HD
ATOM    913  HE2 HIS A  95     -12.229 -10.976  24.800  0.00  0.00    +0.147   HD
ENDBRANCH  905  906
ENDBRANCH  902  905
END_RES HIS A 95
// 2WZX 
BEGIN_RES LYS A 342
ROOT
ATOM   1865  CA  LYS A 342       1.099   2.839  16.599  0.00  0.00    +0.149   C
ENDROOT
BRANCH 1865 1868 
ATOM   1868  CB  LYS A 342       2.471   2.464  17.202  0.00  0.00    +0.029   C
BRANCH 1868 1869 
ATOM   1869  CG  LYS A 342       3.133   3.614  17.972  0.00  0.00    +0.004   C 
ATOM   1870  CD  LYS A 342       2.404   3.929  19.291  0.00  0.00    +0.017   C 
ATOM   1871  CE  LYS A 342       3.001   5.146  19.992  0.00  0.00    +0.065   C 
ATOM   1872  NZ  LYS A 342       2.487   6.445  19.426  0.00  0.00    -0.321   NA
ATOM   1873  H01 LYS A 342       3.174   7.171  19.570  0.00  0.00    +0.119   HD
ATOM   1874  H02 LYS A 342       2.314   6.337  18.437  0.00  0.00    +0.119   HD
ATOM   1875  H04 LYS A 342       0.474   1.485  15.057  0.00  0.00    +0.150   HD
ENDBRANCH 1868 1869
ENDBRANCH 1865 1868 
END_RES LYS A 342
BEGIN_RES ASN A 373
ROOT 
ATOM   2147  CA  ASN A 373      -3.329  10.668  12.021  0.00  0.00    +0.158   C
ENDROOT
BRANCH 2147 2150
ATOM   2150  CB  ASN A 373      -3.369  10.472  13.540  0.00  0.00    +0.114   C 
ATOM   2151  CG  ASN A 373      -2.008  10.635  14.208  0.00  0.00    +0.222   C 
ATOM   2152  ND2 ASN A 373      -2.021  10.689  15.534  0.00  0.00    -0.329   N 
ATOM   2153  OD1 ASN A 373      -0.962  10.698  13.550  0.00  0.00    -0.275   OA
ATOM   2154  H01 ASN A 373      -1.155  10.791  16.044  0.00  0.00    +0.145   HD
ATOM   2155  H02 ASN A 373      -3.056  12.766  12.399  0.00  0.00    +0.150   HD
ATOM   2156  H03 ASN A 373      -2.897  10.628  16.033  0.00  0.00    +0.145   HD
ENDBRANCH 2147 2150
END_RES ASN A 373
// 6M9W
BEGIN_RES LYS A 16
REMARK INDEX MAP 1 37
ROOT
ATOM     37  CB  LYS A  16      24.494  35.537   9.600  0.00  0.00    +0.032   C
ENDROOT
BRANCH   37   38 
ATOM     38  CG  LYS A  16      25.919  35.293  10.082  0.00  0.00    +0.000   C 
ATOM     39  CD  LYS A  16      26.954  36.032   9.248  0.00  0.00    -0.019   C 
ATOM     40  CE  LYS A  16      26.993  35.535   7.809  0.00  0.00    -0.086   C 
ATOM     41  NZ  LYS A  16      27.271  34.074   7.724  0.00  0.00    +0.378   N 
ATOM     42  H   LYS A  16      24.331  33.187  10.162  0.00  0.00    +0.149   HD
ATOM     43  HZ1 LYS A  16      26.610  33.616   8.105  0.00  0.00    -0.090   HD
ATOM     44  HZ2 LYS A  16      27.340  33.826   6.872  0.00  0.00    -0.090   HD
ATOM     45  HZ3 LYS A  16      28.033  33.884   8.143  0.00  0.00    -0.090   HD
ENDBRANCH   37   38
END_RES LYS A 16
